LAMMPS data file via write_data, version 12 Dec 2018, timestep = 30000000

500 atoms
11 atom types
506 bonds
17 bond types
930 angles
29 angle types
1242 dihedrals
38 dihedral types
536 impropers
21 improper types

1.4235872232179148e-02 1.7237794627772811e+01 xlo xhi
1.4235872232179148e-02 1.7237794627772811e+01 ylo yhi
1.4235872232179148e-02 1.7237794627772811e+01 zlo zhi

Masses

1 12.0112
2 12.0112
3 12.0112
4 12.011
5 12.0112
6 1.00797
7 1.008
8 14.01
9 15.9994
10 15.9994
11 15.9994

Atoms # full

272 2 5 -1.2680000000000000e-01 3.0765172729364405e+00 1.6004268605391834e+00 6.9551077064886533e+00 0 1 0
279 2 1 -1.0600000000000000e-01 7.4600478292094075e-01 2.1847504263934536e+00 7.7523837559695954e+00 0 1 0
291 2 6 1.2680000000000000e-01 1.1468871605060791e+00 1.4325948897109479e+00 4.9042183407506892e+00 0 1 0
290 2 5 -1.2680000000000000e-01 6.4654521577414703e-01 2.4294635772552473e+00 5.0621442737010405e+00 0 1 0
274 2 5 0.0000000000000000e+00 1.8468801574659932e+00 1.1574621470192827e+00 7.4912334162071001e+00 0 1 0
334 2 6 5.2999999999999999e-02 4.7674059027425226e+00 6.0617860547214146e+00 3.0228534580705295e+00 0 1 -1
378 2 6 5.2999999999999999e-02 4.6502628571871174e+00 2.9099750165152782e+00 2.4873528588242961e+00 0 1 -1
376 2 1 2.7000000000000000e-02 4.2821895582371114e+00 1.9709104505811714e+00 2.2009672598413181e+00 0 1 -1
329 2 6 5.2999999999999999e-02 2.2474462196521943e+00 6.1509834474483771e+00 3.9766999678767672e+00 0 1 -1
323 2 11 -2.6600000000000001e-01 2.2399413500857461e+00 6.7437061250713919e+00 6.7399880633613369e+00 0 1 -1
497 2 1 -2.5999999999999999e-02 6.3860768536899633e+00 4.0308144830386663e+00 5.5590448903994112e+00 0 0 -2
492 2 11 -2.6600000000000001e-01 6.5020241748158627e+00 4.7193370272036219e+00 6.8031008549837457e+00 0 0 -2
498 2 6 5.2999999999999999e-02 7.2220683788027600e+00 3.3983802343451779e+00 5.3429100094885520e+00 0 0 -2
500 2 6 5.2999999999999999e-02 6.1936247522155679e+00 4.7527749159829256e+00 4.7393203163686737e+00 0 0 -2
375 2 11 -2.6600000000000001e-01 4.2263404012608516e+00 1.9200236606753087e+00 7.3623637508108164e-01 0 1 -1
320 2 1 2.7000000000000000e-02 1.5381867499660211e+00 6.7552307682538162e+00 7.9777629772857868e+00 0 1 -1
333 2 1 2.7000000000000000e-02 4.8643111148873359e+00 7.0522682582662171e+00 3.4607816382599030e+00 0 1 -1
270 2 5 -1.2680000000000000e-01 4.1407363452732282e+00 7.3644149704611517e-01 6.6839292863227380e+00 0 1 0
331 2 6 5.2999999999999999e-02 4.3260186849303190e+00 6.4151247691028281e+00 5.3204694347027095e+00 0 1 -1
200 1 1 2.7000000000000000e-02 8.1611571414135362e+00 3.5343494337645565e+00 1.7216143546329958e+00 0 0 0
490 2 6 5.2999999999999999e-02 7.6792209910049918e+00 6.3824270626453306e+00 6.3532054830328377e+00 0 0 -2
499 2 6 5.2999999999999999e-02 5.5078865384168454e+00 3.4356987591306640e+00 5.6149559717008843e+00 0 0 -2
489 2 1 2.7000000000000000e-02 7.5937812157222009e+00 5.5671605762036531e+00 7.0681245872094465e+00 0 0 -2
201 1 6 5.2999999999999999e-02 7.0787545854862728e+00 3.3749238758903015e+00 1.8812324063127976e+00 0 0 0
491 2 6 5.2999999999999999e-02 8.5438674855710541e+00 5.0229070935420950e+00 6.8204937450683776e+00 0 0 -2
271 2 6 1.2680000000000000e-01 5.1840657713838576e+00 1.1204541019035790e+00 6.4316415673545340e+00 0 1 0
204 1 1 2.7000000000000000e-02 8.0590315261499885e+00 5.6620194457291229e+00 4.8632096365122379e-01 0 0 0
273 2 6 1.2680000000000000e-01 3.3003644648205781e+00 2.6584400465058406e+00 6.8942180575717149e+00 0 1 0
374 2 6 5.2999999999999999e-02 3.0783596224485343e+00 3.7338656206566765e+00 7.7974826724514035e-01 0 1 -1
289 2 6 1.2680000000000000e-01 4.5546540575730332e-01 2.6868295593230429e+00 2.8971832608072257e+00 0 1 0
206 1 6 5.2999999999999999e-02 8.1384235805075189e+00 6.1857732231678506e+00 1.4798147570675528e+00 0 0 0
327 2 1 -1.0600000000000000e-01 2.4612897704930958e+00 7.1283622750070341e+00 4.3693075257937881e+00 0 1 -1
332 2 6 5.2999999999999999e-02 4.2216426150336073e+00 8.1874825065915662e+00 5.1189670876211490e+00 0 1 -1
288 2 5 -1.2680000000000000e-01 2.0694059893978387e-01 3.0777290262093193e+00 3.9123475313131046e+00 0 1 0
183 1 6 5.2999999999999999e-02 1.3339727826188017e+01 1.9933173801088546e+00 5.9601409309640341e-01 0 0 0
203 1 11 -2.6600000000000001e-01 8.3656951318934869e+00 4.2985786831964976e+00 4.9295342545803772e-01 0 0 0
282 2 5 0.0000000000000000e+00 3.3747270262998152e-01 2.8689122023890476e+00 6.3354322236097920e+00 0 1 0
336 2 11 -2.6600000000000001e-01 4.5260950196344183e+00 8.0535776050283658e+00 2.4801887360335826e+00 0 1 -1
337 2 1 2.7000000000000000e-02 5.5375349776064500e+00 8.2865369066803343e+00 1.5213288775479572e+00 0 1 -1
295 2 9 -5.8499999999999996e-01 2.0373337229447858e-01 4.4275265487197073e+00 1.3036894057029722e+00 0 1 0
176 1 6 5.2999999999999999e-02 7.6277415479862243e-01 1.3253715663830865e+00 1.4170324534745962e-01 1 0 0
202 1 6 5.2999999999999999e-02 8.6012142469191222e+00 4.2572313853214716e+00 2.5006251707911389e+00 0 0 0
381 2 6 5.2999999999999999e-02 5.7814167878802252e+00 6.0295966298199821e-01 1.8711917949530188e+00 0 1 -1
339 2 6 5.2999999999999999e-02 5.8386080091681745e+00 7.3540356133982394e+00 1.0865348842961184e+00 0 1 -1
197 1 1 -1.0600000000000000e-01 8.8637299250174042e+00 2.2182210446922608e+00 1.4543034648694182e+00 0 0 0
486 2 1 -1.0600000000000000e-01 7.5948732896967934e+00 6.0271930853454769e+00 8.5439012150405809e+00 0 0 -2
324 2 1 2.7000000000000000e-02 1.6348239911967768e+00 7.3611333814432198e+00 5.6525632224193467e+00 0 1 -1
252 2 9 -3.9639999999999997e-01 8.5439394490779144e+00 8.3509009964380390e+00 4.1810883573301920e+00 0 0 0
199 1 6 5.2999999999999999e-02 9.8043976786009051e+00 2.4371553452413406e+00 1.0003475292279602e+00 0 0 0
194 1 1 -1.0600000000000000e-01 9.0599308275637043e+00 1.0903987014374976e+00 2.5296416337832865e+00 0 0 0
61 1 1 1.1899999999999999e-01 1.4545152722340676e+01 1.0343447312200027e-01 6.7708220083693780e+00 0 0 -1
372 2 1 2.7000000000000000e-02 3.2876268075443660e+00 2.8628239672181923e+00 1.6507177282342800e-01 0 1 -1
322 2 6 5.2999999999999999e-02 1.2464818781649933e+00 7.8262188275924265e+00 8.2891221616037392e+00 0 1 -1
114 1 6 5.2999999999999999e-02 1.3371844812116009e+01 2.1602504813547276e+00 4.6795946556622923e+00 0 -1 -1
480 2 1 2.7000000000000000e-02 6.1518573019108809e+00 8.2967366500504340e+00 8.1567342316318978e+00 0 0 -2
280 2 6 5.2999999999999999e-02 1.0759758552623686e+00 2.9745393339489361e+00 8.4790970092026878e+00 0 1 0
482 2 6 5.2999999999999999e-02 5.9726557418933108e+00 8.1477823349729306e+00 7.1122071128542688e+00 0 0 -2
328 2 6 5.2999999999999999e-02 2.2185610150858892e+00 7.9239630407720867e+00 3.5383750288868914e+00 0 1 -1
338 2 6 5.2999999999999999e-02 6.4565371091273400e+00 8.6091515588315808e+00 2.0549467351802750e+00 0 1 -1
281 2 6 5.2999999999999999e-02 1.7114636634488516e+01 1.7852171225640443e+00 8.2363969984614744e+00 -1 1 0
119 1 1 -1.0600000000000000e-01 1.1551270213713741e+01 4.2706667992911393e+00 6.8123244446885840e+00 0 -1 -1
377 2 6 5.2999999999999999e-02 3.2400850895306368e+00 1.9646116988252968e+00 2.6292344215632459e+00 0 1 -1
62 1 6 5.2999999999999999e-02 1.4634924169551743e+01 1.1602002813475210e+00 6.8024069784304428e+00 0 0 -1
373 2 6 5.2999999999999999e-02 2.2649413993417697e+00 2.3990286474389784e+00 7.2438339669259222e-02 0 1 -1
335 2 6 5.2999999999999999e-02 5.9907133278649889e+00 7.1077193889908328e+00 3.6477114120025198e+00 0 1 -1
330 2 1 -1.0600000000000000e-01 3.9807032849242923e+00 7.1854645838908358e+00 4.6638718418521306e+00 0 1 -1
181 1 1 -1.0600000000000000e-01 1.3942178636009805e+01 1.0542432333979685e+00 4.5635654937896791e-01 0 0 0
178 1 1 2.7000000000000000e-02 1.5366044217991282e+01 1.5966213956766053e+00 4.4601886972167298e-01 0 0 0
184 1 1 -1.0600000000000000e-01 1.3698145347518878e+01 9.3267935810870631e-02 1.6086580382750517e+00 0 0 0
118 1 6 5.2999999999999999e-02 1.2747084425623614e+01 2.6369693822532843e+00 7.1653160082833658e+00 0 -1 -1
380 2 6 5.2999999999999999e-02 5.5671880515342105e+00 8.8974440556095757e-01 3.5730651427843592e+00 0 1 -1
195 1 6 5.2999999999999999e-02 8.0112721451291158e+00 5.4462223970619605e-01 2.6948418918376418e+00 0 0 0
95 1 6 5.2999999999999999e-02 1.5920602077818861e+01 8.4673808868235856e+00 1.8291803387016949e+00 0 -1 -1
190 1 11 -2.6600000000000001e-01 1.1325994261700741e+01 4.9545009598124723e-01 1.8466988943074205e+00 0 0 0
283 2 5 -1.2680000000000000e-01 1.6766041229335976e+01 4.0541883022818457e+00 6.3768065208940747e+00 -1 1 0
59 1 9 -5.3100000000000003e-01 1.2495094384369153e+01 2.0098165268930829e-01 8.3183819837485924e+00 0 0 -1
99 1 11 -2.6600000000000001e-01 1.3206580354500920e+01 8.5441901025953051e+00 2.3848593579168433e+00 0 -1 -1
294 2 4 8.0700000000000005e-01 1.6400221595801135e+01 4.8787017472699521e+00 1.7073757942547860e+00 -1 1 0
286 2 6 1.2680000000000000e-01 1.5559028261380970e+01 5.5601728329837439e+00 5.4748232918731299e+00 -1 1 0
321 2 6 5.2999999999999999e-02 5.7264377007034495e-01 6.2677866527041370e+00 7.8892426532510678e+00 0 1 -1
103 1 1 -1.0600000000000000e-01 1.1695522777550378e+01 6.8272443340218905e+00 3.0323693289807920e+00 0 -1 -1
326 2 6 5.2999999999999999e-02 6.1412428609907699e-01 6.9430279028057678e+00 5.5319517235907858e+00 0 1 -1
292 2 8 -7.2599999999999998e-01 1.5957441508735480e+01 4.8002240543183445e+00 2.9148305810065271e+00 -1 1 0
196 1 6 5.2999999999999999e-02 9.4771239611694771e+00 1.4596881235595724e+00 3.5214830793044776e+00 0 0 0
112 1 11 -2.6600000000000001e-01 1.2553467607233673e+01 3.9742074600795170e+00 4.1426287462404545e+00 0 -1 -1
109 1 1 2.7000000000000000e-02 1.2279235446172228e+01 4.2414073137848307e+00 2.7589503675999638e+00 0 -1 -1
117 1 6 5.2999999999999999e-02 1.3609850988508041e+01 3.9922807901815851e+00 6.3123549758776001e+00 0 -1 -1
110 1 6 5.2999999999999999e-02 1.2845116074928148e+01 3.7061395869922849e+00 1.9991201662772073e+00 0 -1 -1
105 1 6 5.2999999999999999e-02 1.0632027032708685e+01 6.5059514073541900e+00 3.1054206802416413e+00 0 -1 -1
133 1 6 5.2999999999999999e-02 1.3660515550049722e+01 8.1281477266599058e+00 6.3559758943505233e+00 0 -1 -1
115 1 6 5.2999999999999999e-02 1.1555249630030650e+01 2.3011819651918044e+00 4.7635800456019677e+00 0 -1 -1
131 1 6 5.2999999999999999e-02 1.4749089309107294e+01 7.1350312392904831e+00 8.4620517174882721e+00 0 -1 -1
100 1 1 2.7000000000000000e-02 1.1823491576953282e+01 8.1123712749678756e+00 2.2505102978518403e+00 0 -1 -1
496 2 6 5.2999999999999999e-02 1.0305960555964553e+01 7.5989361977037824e+00 5.5621009411923232e+00 0 0 0
297 2 7 3.7800000000000000e-01 1.4632939651396256e+01 5.6998117262604877e+00 1.3179373189178469e+00 -1 1 0
122 1 1 2.7000000000000000e-02 1.1632285492943538e+01 5.0462569964858357e+00 8.0943987264561486e+00 0 -1 -1
379 2 1 -1.0600000000000000e-01 5.0380909563542389e+00 7.5821495577266673e-01 2.6219489606568569e+00 0 1 -1
179 1 6 5.2999999999999999e-02 1.5637763322816282e+01 1.8192260953312647e+00 1.5177705046216752e+00 0 0 0
293 2 7 3.7800000000000000e-01 1.5158865682178870e+01 5.3256873637129374e+00 3.1453204496833105e+00 -1 1 0
106 1 1 -1.0600000000000000e-01 1.2585877732462814e+01 5.7143008153638970e+00 2.4936945290161905e+00 0 -1 -1
116 1 1 -1.0600000000000000e-01 1.2704528629971607e+01 3.3433871993037472e+00 6.3598369742052077e+00 0 -1 -1
186 1 6 5.2999999999999999e-02 1.3738454949500934e+01 6.4481207360155690e-01 2.5439722446457171e+00 0 0 0
285 2 5 -1.2680000000000000e-01 1.6192514542016504e+01 4.6482797541961700e+00 5.3131576384127639e+00 -1 1 0
125 1 11 -2.6600000000000001e-01 1.2582557510409316e+01 6.0581383611231523e+00 8.0365358431558302e+00 0 -1 -1
284 2 6 1.2680000000000000e-01 1.6410262833165980e+01 4.2732562763175626e+00 7.3990802120656349e+00 -1 1 0
108 1 6 5.2999999999999999e-02 1.3562612866353309e+01 5.9176273924416121e+00 2.8857372624210975e+00 0 -1 -1
287 2 5 2.3699999999999999e-01 1.6557410690526048e+01 4.1963607395749367e+00 4.0248333456336693e+00 -1 1 0
121 1 6 5.2999999999999999e-02 1.0606357339560823e+01 3.5963561350865474e+00 6.8900048468819026e+00 0 -1 -1
104 1 6 5.2999999999999999e-02 1.2036809047239748e+01 7.0604492221833910e+00 4.0433585444237519e+00 0 -1 -1
296 2 8 -7.2599999999999998e-01 1.5488166808868257e+01 5.4985340717883338e+00 9.0034550166823824e-01 -1 1 0
69 1 6 5.2999999999999999e-02 1.5330668014447495e+01 5.5265483439458973e-01 4.2630794933796343e+00 0 0 -1
129 1 1 -1.0600000000000000e-01 1.3943043730324550e+01 7.8709676454360746e+00 8.5561066518407305e+00 0 -1 -1
111 1 6 5.2999999999999999e-02 1.1180097556630189e+01 4.0471208145942290e+00 2.6123054685613649e+00 0 -1 -1
107 1 6 5.2999999999999999e-02 1.2629354547434263e+01 5.9110612255461650e+00 1.4061903336316504e+00 0 -1 -1
113 1 1 2.7000000000000000e-02 1.2497772001191047e+01 2.7934017987564306e+00 4.9356248863570107e+00 0 -1 -1
120 1 6 5.2999999999999999e-02 1.1113082287335295e+01 4.9714134123599241e+00 5.9868076369263328e+00 0 -1 -1
198 1 6 5.2999999999999999e-02 8.2082502244687081e+00 1.7882177987893320e+00 7.0578132257398818e-01 0 0 0
13 1 8 -7.2599999999999998e-01 9.1720620126877055e+00 5.9921200473325087e-01 8.3719716338892933e+00 0 0 0
65 1 6 5.2999999999999999e-02 1.6685863341108806e+01 3.7179512425353778e-02 6.3950519987751138e+00 0 0 -1
101 1 6 5.2999999999999999e-02 1.1670076035748803e+01 7.9006741572558958e+00 1.2101601380569929e+00 0 -1 -1
325 2 6 5.2999999999999999e-02 1.5541986363091196e+00 8.4481649199661248e+00 5.7849690152267339e+00 0 1 -1
191 1 1 2.7000000000000000e-02 9.9565111095765833e+00 2.0143994025687562e-02 1.8848551208201938e+00 0 0 0
14 1 7 3.7800000000000000e-01 1.0125949171535105e+01 9.4819741830001070e-01 8.5088026468051172e+00 0 0 0
123 1 6 5.2999999999999999e-02 1.0682112622069402e+01 5.5418647001996391e+00 8.3748524805547770e+00 0 -1 -1
205 1 6 5.2999999999999999e-02 6.9529538313772523e+00 5.7803268834539221e+00 1.7039527357720630e-01 0 0 0
366 2 1 -1.0600000000000000e-01 3.2179939098749597e+00 4.4338261558991503e+00 1.5241745589339159e+01 0 1 -2
363 2 1 2.7000000000000000e-02 3.3361443050432520e+00 5.8554494910470822e+00 1.5959826432975293e+01 0 1 -2
1 1 2 3.9639999999999997e-01 5.1610538818915650e+00 3.4914552587951557e+00 1.1307793648246358e+01 0 0 0
367 2 6 5.2999999999999999e-02 2.1127539593126166e+00 4.2268759512107232e+00 1.5088640202377379e+01 0 1 -2
362 2 11 -2.6600000000000001e-01 2.6868374955826653e+00 6.7316209243180829e+00 1.4968839730851549e+01 0 1 -2
370 2 6 5.2999999999999999e-02 3.9185674213087993e+00 2.3839210191053826e+00 1.5387063818696202e+01 0 1 -2
243 1 1 -1.5900000000000000e-01 5.5075403841018300e+00 4.7714507820331571e+00 1.2022479561587437e+01 0 0 0
3 1 5 0.0000000000000000e+00 6.3184605294082914e+00 2.7015321181279170e+00 1.0723146842223368e+01 0 0 0
2 1 9 -3.9639999999999997e-01 4.0135238944383911e+00 3.1079625921207326e+00 1.1245678524612824e+01 0 0 0
368 2 6 5.2999999999999999e-02 3.7873371183891171e+00 4.4227825225503237e+00 1.4319904700250060e+01 0 1 -2
11 1 5 -1.2680000000000000e-01 5.9192100632301363e+00 1.6105817048248112e+00 9.9477331976215737e+00 0 0 0
246 1 6 5.2999999999999999e-02 6.1595457359024337e+00 5.3881972455073379e+00 1.1349673724046934e+01 0 0 0
244 1 6 5.2999999999999999e-02 4.6937559781627884e+00 5.4084063751805429e+00 1.2279501127771891e+01 0 0 0
245 1 6 5.2999999999999999e-02 6.1879581189475035e+00 4.4768394847491990e+00 1.2873526304994433e+01 0 0 0
314 2 1 -1.0600000000000000e-01 1.5469545341092454e+00 6.1260289862469257e+00 1.0448646464184877e+01 0 1 -1
12 1 6 1.2680000000000000e-01 4.8581757813348565e+00 1.3563336044455636e+00 9.8681710660609934e+00 0 0 0
9 1 5 -1.2680000000000000e-01 6.8873389702304051e+00 8.7575875657721469e-01 9.2126859633731097e+00 0 0 0
359 2 1 2.7000000000000000e-02 2.2608120083094789e+00 8.0534709413855285e+00 1.5299769687892892e+01 0 1 -2
4 1 5 -1.2680000000000000e-01 7.7153554693895305e+00 2.7987639897856118e+00 1.0958200405010899e+01 0 0 0
316 2 6 5.2999999999999999e-02 2.2202817542759177e+00 6.0432539741552471e+00 1.1345325476134573e+01 0 1 -1
485 2 6 5.2999999999999999e-02 6.7831010939385514e+00 7.5014353692062237e+00 9.9518774681498652e+00 0 0 -2
451 2 6 5.2999999999999999e-02 6.2858806677793329e+00 1.2144397502155260e+00 1.5664320953976292e+01 0 1 -2
361 2 6 5.2999999999999999e-02 1.2169582003512276e+00 8.1841649512739512e+00 1.5624201423143326e+01 0 1 -2
307 2 6 1.2680000000000000e-01 1.6992893460336706e+01 4.1794282820850626e+00 1.6204892794256196e+01 -1 1 -1
305 2 6 1.2680000000000000e-01 3.1502511018098939e-01 5.0601953097139196e+00 1.3862227552191635e+01 0 1 -1
354 2 6 5.2999999999999999e-02 3.6738262872337315e+00 7.9843661477386201e+00 1.2668037053934015e+01 0 1 -2
212 1 6 5.2999999999999999e-02 8.0974080129847508e+00 6.5317715166372441e+00 1.4519375952489185e+01 0 0 -1
240 1 6 5.2999999999999999e-02 1.2947931697995452e+00 2.5962861689586316e+00 1.2151997144454924e+01 1 0 -1
241 1 6 5.2999999999999999e-02 9.3858111575158398e-01 1.9579369137567229e+00 1.3789767480826431e+01 1 0 -1
239 1 1 2.7000000000000000e-02 6.0598033564798515e-01 1.9520599782093180e+00 1.2673137185357730e+01 1 0 -1
211 1 6 5.2999999999999999e-02 8.4713811213310404e+00 4.9134764557930755e+00 1.5048967752740438e+01 0 0 -1
210 1 1 -1.0600000000000000e-01 8.8940910632357166e+00 5.9455565684591063e+00 1.5110648817161275e+01 0 0 -1
449 2 6 5.2999999999999999e-02 7.8147747036815156e+00 2.1142605423440277e+00 1.4203824799697339e+01 0 1 -2
242 1 11 -2.6600000000000001e-01 6.6526311592989495e-01 5.8810644813970847e-01 1.2259641915793514e+01 1 0 -1
208 1 6 5.2999999999999999e-02 9.9290419501878482e+00 6.6088220339548549e+00 1.6938104850384377e+01 0 0 -1
351 2 6 5.2999999999999999e-02 5.0709444642199148e+00 8.4307676685056272e+00 1.4566223461963594e+01 0 1 -2
5 1 6 1.2680000000000000e-01 8.0378009646943287e+00 3.5914172328323493e+00 1.1630885721204464e+01 0 0 0
447 2 1 -1.0600000000000000e-01 8.1301130809916931e+00 1.1482291885212996e+00 1.4548269161856435e+01 0 1 -2
360 2 6 5.2999999999999999e-02 2.9036555012942769e+00 8.5305991190735710e+00 1.6029562039356712e+01 0 1 -2
311 2 1 1.1899999999999999e-01 3.8855696155811514e-01 7.1397578952217913e+00 1.0783818075537624e+01 0 1 -1
450 2 1 2.7000000000000000e-02 6.9413287467737774e+00 4.4496258345558015e-01 1.5214085277451233e+01 0 1 -2
249 1 6 5.2999999999999999e-02 2.6719658954866050e+00 4.7261754124855282e-01 1.1700780449090672e+01 1 0 -1
247 1 1 -2.5999999999999999e-02 1.9805589831675943e+00 6.3333410068240503e-02 1.2436527086724711e+01 1 0 -1
250 1 6 5.2999999999999999e-02 2.3448833835619838e+00 2.5220405162279036e-01 1.3528054943499539e+01 1 0 -1
8 1 5 2.3699999999999999e-01 8.2487079512446311e+00 1.2558138906698295e+00 9.1806228966222854e+00 0 0 0
312 2 6 5.2999999999999999e-02 7.6394630434833510e-01 8.1787586370598984e+00 1.0900186990328672e+01 0 1 -1
207 1 1 -1.0600000000000000e-01 8.8741884317447770e+00 6.4700956748967258e+00 1.6629608882967482e+01 0 0 -1
6 1 5 -1.2680000000000000e-01 8.6379007406827384e+00 2.1847849629140246e+00 1.0132470766548387e+01 0 0 0
310 2 10 -3.9600000000000002e-01 1.7161902742355476e+01 6.5906833772339226e+00 1.1959568711245478e+01 -1 1 -1
304 2 5 -1.2680000000000000e-01 1.6742727789030042e+01 5.5507297163440557e+00 1.4546689704009877e+01 -1 1 -1
369 2 1 -1.0600000000000000e-01 3.9095226468941400e+00 3.3033824409415411e+00 1.5995636503932388e+01 0 1 -2
315 2 6 5.2999999999999999e-02 1.1038049213929857e+00 5.1331670866360701e+00 1.0274281371280333e+01 0 1 -1
365 2 6 5.2999999999999999e-02 2.7361615288792183e+00 5.9529959242429351e+00 1.6866951576968972e+01 0 1 -2
313 2 6 5.2999999999999999e-02 1.6772218831661000e+01 7.0723274918277310e+00 1.0045674859405908e+01 -1 1 -1
357 2 6 5.2999999999999999e-02 1.3795981877276886e+00 8.5205151645785140e+00 1.3322966224364905e+01 0 1 -2
228 1 6 5.2999999999999999e-02 1.2269118956096253e+01 4.2682695000432194e+00 1.1553952505548711e+01 0 0 -1
364 2 6 5.2999999999999999e-02 4.3055230844210968e+00 6.3311335777830609e+00 1.6159871568705412e+01 0 1 -2
371 2 6 5.2999999999999999e-02 4.9504168733502691e+00 3.6144860423858072e+00 1.6107043928906926e+01 0 1 -2
234 1 6 5.2999999999999999e-02 1.6017448049265901e+01 1.5374116963369029e+00 1.0619919370396843e+01 0 0 -1
182 1 6 5.2999999999999999e-02 1.3672713043481600e+01 6.9766446699766260e-01 1.6609221949779950e+01 0 0 -1
232 1 6 5.2999999999999999e-02 1.4789848087838141e+01 4.2326405024929104e+00 1.1023626618502696e+01 0 0 -1
224 1 6 5.2999999999999999e-02 1.1935446879277073e+01 1.5461369085741523e+00 1.2906510011284031e+01 0 0 -1
448 2 6 5.2999999999999999e-02 8.8301281593044756e+00 1.4330935866197037e+00 1.5354152594865894e+01 0 1 -2
177 1 11 -2.6600000000000001e-01 1.6077832538036262e+01 5.1823075747120240e-01 1.7118359173204027e+01 0 0 -1
175 1 6 5.2999999999999999e-02 1.7193412458424611e+01 1.4954930940486419e+00 1.5737219786487923e+01 0 0 -1
174 1 1 2.7000000000000000e-02 1.3359010078639971e-01 8.1668488383380922e-01 1.6580328700655002e+01 1 0 -1
417 2 6 5.2999999999999999e-02 1.1402845423460889e+01 8.4449655515395960e+00 1.1085759826924260e+01 0 0 -2
418 2 1 -1.0600000000000000e-01 9.1528078174515510e+00 8.6000833471309104e+00 1.1061378001916985e+01 0 0 -2
419 2 6 5.2999999999999999e-02 8.9489134273394111e+00 7.6018505699761230e+00 1.1514221687403520e+01 0 0 -2
233 1 1 -1.0600000000000000e-01 1.6067611188036054e+01 2.5058266282474584e+00 1.1012092948102755e+01 0 0 -1
445 2 6 5.2999999999999999e-02 9.7458077127952958e+00 7.6607972271548952e-01 1.3223759781503100e+01 0 1 -2
220 1 1 -1.0600000000000000e-01 1.2508132256170548e+01 3.0895608058722508e+00 1.4238479652443534e+01 0 0 -1
180 1 6 5.2999999999999999e-02 1.5464359737937537e+01 2.5786878556849380e+00 1.7134052878638308e+01 0 0 -1
318 2 6 5.2999999999999999e-02 3.0919959700237589e+00 7.0714415866026261e+00 9.3175471646334920e+00 0 1 -1
446 2 6 5.2999999999999999e-02 8.0258897676154017e+00 2.0647534139277307e-01 1.2656634575041293e+01 0 1 -2
231 1 6 5.2999999999999999e-02 1.4424234292594992e+01 3.0070688203501326e+00 9.7622026316442767e+00 0 0 -1
215 1 6 5.2999999999999999e-02 1.0173754162856007e+01 6.3591559301361098e+00 1.3379003148270872e+01 0 0 -1
444 2 1 -1.0600000000000000e-01 8.7861325308618703e+00 2.4987128751202359e-01 1.3480590038181205e+01 0 1 -2
217 1 1 2.7000000000000000e-02 1.2392472908239359e+01 4.6305373335558953e+00 1.4342177510695334e+01 0 0 -1
299 2 5 -1.2680000000000000e-01 1.4769633781470258e+01 6.7899614147809801e+00 1.6165691138893521e+01 -1 1 -1
301 2 5 -1.2680000000000000e-01 1.4959533171715650e+01 7.2067818935598380e+00 1.4851689346664005e+01 -1 1 -1
420 2 6 5.2999999999999999e-02 8.8351795624150053e+00 8.4958169827427987e+00 9.9739918910915577e+00 0 0 -2
213 1 1 2.7000000000000000e-02 1.0317813319487398e+01 6.1005798560598592e+00 1.4464553528346931e+01 0 0 -1
10 1 6 1.2680000000000000e-01 6.5442894899312138e+00 4.4354964285517440e-02 8.6581673720792747e+00 0 0 0
303 2 5 -1.7999999999999999e-02 1.5952496804869748e+01 6.6217905743057548e+00 1.4043451028116289e+01 -1 1 -1
225 1 6 5.2999999999999999e-02 1.0687702484366580e+01 2.9088713699118860e+00 1.2838657689940199e+01 0 0 -1
227 1 6 5.2999999999999999e-02 1.2000411199903549e+01 2.8569968212323906e+00 1.0706414048437324e+01 0 0 -1
308 2 3 7.1999999999999997e-01 1.6076982957312325e+01 7.1241411511706234e+00 1.2633116030687530e+01 -1 1 -1
226 1 1 2.7000000000000000e-02 1.2415881212565067e+01 3.1444032572594525e+00 1.1631437162884037e+01 0 0 -1
223 1 1 -1.0600000000000000e-01 1.1750078947145338e+01 2.6159359923129655e+00 1.2923786963067146e+01 0 0 -1
219 1 6 5.2999999999999999e-02 1.2777248018931145e+01 5.1709614500852981e+00 1.3380356361823516e+01 0 0 -1
300 2 6 1.2680000000000000e-01 1.3895660088430336e+01 7.2077675013838967e+00 1.6705205542911074e+01 -1 1 -1
222 1 6 5.2999999999999999e-02 1.3534430046664639e+01 2.9141805536681598e+00 1.3914625258280100e+01 0 0 -1
127 1 6 5.2999999999999999e-02 1.2705938452865841e+01 6.7795033639354410e+00 1.0034419249971444e+01 0 -1 -1
216 1 11 -2.6600000000000001e-01 1.1016094609522034e+01 4.9129351716150857e+00 1.4691688399807811e+01 0 0 -1
235 1 6 5.2999999999999999e-02 1.6927916610153318e+01 2.9910079784610240e+00 1.0510307157303693e+01 0 0 -1
128 1 6 5.2999999999999999e-02 1.1783001861194911e+01 7.7959195944852828e+00 8.8303640358708861e+00 0 -1 -1
238 1 6 5.2999999999999999e-02 1.5680006008323538e+01 1.8658427038903351e+00 1.3082053037379014e+01 0 0 -1
236 1 1 -1.0600000000000000e-01 1.6397920385231757e+01 2.4568756706416481e+00 1.2489477343416228e+01 0 0 -1
298 2 5 2.3699999999999999e-01 1.5639294358733906e+01 5.7687944090402068e+00 1.6737655128764530e+01 -1 1 -1
229 1 11 -2.6600000000000001e-01 1.3719052432226643e+01 2.6435666435456802e+00 1.1686752662495239e+01 0 0 -1
237 1 6 5.2999999999999999e-02 1.6185215952769234e+01 3.4051620358272294e+00 1.3012758966820835e+01 0 0 -1
214 1 6 5.2999999999999999e-02 1.0863648514960472e+01 6.9576470593234916e+00 1.4837664113546511e+01 0 0 -1
309 2 9 -5.3100000000000003e-01 1.5369559164613753e+01 7.8407315919030269e+00 1.1978104767436164e+01 -1 1 -1
306 2 5 -1.2680000000000000e-01 1.6516628133239344e+01 5.1115968155247025e+00 1.5853089028240150e+01 -1 1 -1
302 2 6 1.2680000000000000e-01 1.4348832078218523e+01 8.0620402586422433e+00 1.4496817702279063e+01 -1 1 -1
7 1 6 1.2680000000000000e-01 9.7254258747381837e+00 2.3617787615608390e+00 1.0347960307335915e+01 0 0 0
218 1 6 5.2999999999999999e-02 1.3005669164928969e+01 4.8919088530787498e+00 1.5161555069396542e+01 0 0 -1
230 1 1 2.7000000000000000e-02 1.4701471731262982e+01 3.1639962983065395e+00 1.0835360585705248e+01 0 0 -1
221 1 6 5.2999999999999999e-02 1.2281661953525358e+01 2.6245615421686930e+00 1.5185668933783285e+01 0 0 -1
209 1 6 5.2999999999999999e-02 8.5147051457215976e+00 7.5332197711430542e+00 1.6660286766533545e+01 0 0 -1
130 1 6 5.2999999999999999e-02 1.4354323419977293e+01 8.4898012007756591e+00 9.3703622379163072e+00 0 -1 -1
124 1 6 5.2999999999999999e-02 1.1790973347438552e+01 4.3175973794689773e+00 8.9792927422710900e+00 0 -1 -1
484 2 6 5.2999999999999999e-02 5.5461895404969184e+00 6.5474226763251826e+00 9.1011508919471318e+00 0 0 -2
126 1 1 2.7000000000000000e-02 1.2629703909309104e+01 7.1159497937107510e+00 8.9907687786549957e+00 0 -1 -1
317 2 1 -1.0600000000000000e-01 2.3300445897945270e+00 6.3418065460949595e+00 9.1774594280691204e+00 0 1 -1
483 2 1 -1.0600000000000000e-01 6.4798539672255195e+00 7.0560320165462604e+00 8.9718332440173789e+00 0 0 -2
319 2 6 5.2999999999999999e-02 2.8649181684801968e+00 5.4068220240411042e+00 9.0201164982232758e+00 0 1 -1
487 2 6 5.2999999999999999e-02 7.4268085867192548e+00 5.1411416388990432e+00 9.1570733437315717e+00 0 0 -2
488 2 6 5.2999999999999999e-02 8.6066913447378042e+00 6.4598613247140850e+00 8.7896880669048532e+00 0 0 -2
265 2 4 8.0700000000000005e-01 5.1350064574223806e+00 1.4363234927743342e+01 6.3939900047087130e+00 0 0 0
266 2 9 -5.8499999999999996e-01 4.1985707427649555e+00 1.3628099514185527e+01 6.2551483411643884e+00 0 0 0
263 2 8 -7.2599999999999998e-01 6.4576001609229845e+00 1.4032238520060641e+01 6.3447025677612254e+00 0 0 0
258 2 5 2.3699999999999999e-01 7.0419956437388107e+00 1.2757040793780645e+01 6.0246753186756585e+00 0 0 0
259 2 5 -1.2680000000000000e-01 6.4953107962048362e+00 1.1926171884686575e+01 5.0452840189538568e+00 0 0 0
260 2 6 1.2680000000000000e-01 5.5818429298238952e+00 1.2271416659399231e+01 4.5308820181483256e+00 0 0 0
264 2 7 3.7800000000000000e-01 7.1583856996950868e+00 1.4617538572057803e+01 6.6152263696952289e+00 0 0 0
267 2 8 -7.2599999999999998e-01 5.1023184597867592e+00 1.5697555296090563e+01 6.6462014213136333e+00 0 0 0
261 2 5 -1.2680000000000000e-01 7.1552513728059495e+00 1.0790251495879424e+01 4.6686508999766243e+00 0 0 0
262 2 6 1.2680000000000000e-01 6.7428401317179212e+00 1.0216072231064160e+01 3.8466437748587095e+00 0 0 0
389 2 1 2.7000000000000000e-02 6.2179703876425840e+00 1.3690442083622520e+01 2.0863979199963119e+00 0 0 -1
390 2 6 5.2999999999999999e-02 6.9928387043378315e+00 1.3876098974715413e+01 2.8185976323666520e+00 0 0 -1
388 2 11 -2.6600000000000001e-01 5.5074794498934718e+00 1.4919432800493258e+01 1.9055106149313843e+00 0 0 -1
278 2 6 1.2680000000000000e-01 2.5285254150736081e+00 1.5000014763561884e+01 7.4629078906662318e+00 0 0 0
80 1 1 -1.0600000000000000e-01 2.0870679794638609e+00 1.1849358417432754e+01 3.8128372948260489e+00 1 -1 -1
82 1 6 5.2999999999999999e-02 2.9124983851185311e+00 1.2416353288596627e+01 4.1576536024108597e+00 1 -1 -1
84 1 6 5.2999999999999999e-02 2.8998728596427008e+00 1.0833296783187034e+01 2.2543701321896932e+00 1 -1 -1
268 2 7 3.7800000000000000e-01 5.9894356063025471e+00 1.6152982753204853e+01 6.4603711271692825e+00 0 0 0
277 2 5 -1.2680000000000000e-01 2.7503868329114289e+00 1.6088819711950251e+01 7.3603353720040783e+00 0 0 0
83 1 1 2.7000000000000000e-02 2.0901350071702431e+00 1.1541280559861617e+01 2.3483790643953686e+00 1 -1 -1
387 2 6 5.2999999999999999e-02 4.3435672758415267e+00 1.4837560862250637e+01 3.6468871545535135e+00 0 0 -1
85 1 6 5.2999999999999999e-02 2.2987975649284795e+00 1.2356634795668562e+01 1.6960524692882708e+00 1 -1 -1
81 1 6 5.2999999999999999e-02 2.1552901592445100e+00 1.0896248699067883e+01 4.3956839871652136e+00 1 -1 -1
76 1 6 5.2999999999999999e-02 1.7879432648976632e+00 1.4469616598829203e+01 3.6150396535460438e+00 1 -1 -1
74 1 1 2.7000000000000000e-02 7.9752491283137583e-01 1.4038770762529118e+01 3.5583438136115499e+00 1 -1 -1
391 2 6 5.2999999999999999e-02 5.5228352693519280e+00 1.2875097992311860e+01 2.3879327497041167e+00 0 0 -1
385 2 1 2.7000000000000000e-02 5.0385529949200238e+00 1.5503184018959782e+01 3.0780547496472939e+00 0 0 -1
386 2 6 5.2999999999999999e-02 5.8052333446247797e+00 1.5798829356816618e+01 3.7778809877109270e+00 0 0 -1
86 1 11 -2.6600000000000001e-01 8.4847692332528912e-01 1.0852134591761164e+01 1.9936392443351645e+00 1 -1 -1
75 1 6 5.2999999999999999e-02 4.9561178865357108e-01 1.3838049535387256e+01 2.5473469405123712e+00 1 -1 -1