LAMMPS data file via write_data, version 8 Feb 2019, timestep = 13000000

524 atoms
10 atom types
528 bonds
15 bond types
968 angles
27 angle types
1272 dihedrals
35 dihedral types
560 impropers
18 improper types

2.0002986737109651e-02 1.7452718013275096e+01 xlo xhi
2.0002986737109651e-02 1.7452718013275096e+01 ylo yhi
2.0002986737109651e-02 1.7452718013275096e+01 zlo zhi

Masses

1 12.0112
2 12.0112
3 12.011
4 12.0112
5 1.00797
6 1.008
7 14.01
8 15.9994
9 15.9994
10 15.9994


Atoms # full

327 3 1 -1.0600000000000000e-01 1.9159505401577810e+00 1.7625882604520131e+00 1.4500369673666307e+00 3 0 -1
324 3 1 -1.0600000000000000e-01 2.8222016966137442e+00 2.8807957003061375e+00 9.7295048388928995e-01 3 0 -1
172 2 5 5.2999999999999999e-02 2.0608051427021628e+00 6.5182910276882913e+00 4.0698910699703621e+00 0 1 0
38 1 5 5.2999999999999999e-02 5.6467782879264972e+00 7.0068709693120281e+00 1.6792838587650474e+00 0 -1 -1
100 1 5 5.2999999999999999e-02 6.7160347123221378e+00 5.2611668163334731e+00 4.8380781779665565e+00 -1 -1 -1
326 3 5 5.2999999999999999e-02 3.6046686998717834e+00 2.3938986150634340e+00 3.8125475107626300e-01 3 0 -1
320 3 10 -2.6600000000000001e-01 1.5712132437848720e+00 4.7822335086133725e+00 9.5165789401875778e-01 3 0 -1
325 3 5 5.2999999999999999e-02 3.2734767469284578e+00 3.3743928195807613e+00 1.7520882993367721e+00 3 0 -1
328 3 5 5.2999999999999999e-02 9.7373301848019866e-01 2.1983914626521450e+00 1.6758893967062454e+00 3 0 -1
333 3 10 -2.6600000000000001e-01 2.7310426408057036e+00 1.6148550971784739e+00 3.6449159158562883e+00 3 0 -1
330 3 1 2.7000000000000000e-02 2.3268591402190850e+00 8.1518995405877215e-01 2.5464399688458750e+00 3 0 -1
329 3 5 5.2999999999999999e-02 1.7217701598386705e+00 9.9677161828980732e-01 5.9726282949567544e-01 3 0 -1
170 2 1 -1.0600000000000000e-01 1.8753666556382771e+00 6.0810669438019316e+00 5.0793391182938823e+00 0 1 0
105 1 5 5.2999999999999999e-02 5.0624592708989749e+00 7.5094189989421638e+00 4.4085935463010273e+00 -1 -1 -1
98 1 1 2.7000000000000000e-02 7.5382333208847205e+00 5.9434476235186553e+00 5.1370833168629035e+00 -1 -1 -1
340 3 1 -1.0600000000000000e-01 5.8764866888282201e+00 8.8193896930533577e-01 4.6446655680672375e+00 3 0 -1
315 3 5 5.2999999999999999e-02 8.6469504907889549e-01 6.8324753392734712e+00 2.2475539253281278e+00 3 0 -1
345 3 5 5.2999999999999999e-02 7.3338964111131961e+00 2.4266471871600452e+00 4.9859848867495842e+00 3 0 -1
95 1 5 5.2999999999999999e-02 7.8570932475055084e+00 4.3795738734298295e+00 2.9153020066037549e+00 -1 -1 -1
341 3 5 5.2999999999999999e-02 5.8522531030483576e+00 1.0769862815794808e+00 3.5502095442247885e+00 3 0 -1
101 1 1 -1.0600000000000000e-01 7.0305203683692303e+00 7.3253146760612564e+00 5.5640839613040551e+00 -1 -1 -1
104 1 1 -1.0600000000000000e-01 6.0480955788141175e+00 8.0562940911805221e+00 4.5439855475440583e+00 -1 -1 -1
343 3 1 2.7000000000000000e-02 6.4021859213945707e+00 2.0332030929209846e+00 5.4245891064464660e+00 3 0 -1
334 3 1 2.7000000000000000e-02 3.1746883231527989e+00 1.1526016596471096e+00 4.9411902038309368e+00 3 0 -1
379 3 5 5.2999999999999999e-02 1.5222792493615968e+01 1.8500426240333090e+00 3.7125103061521232e+00 3 0 -1
428 4 5 5.2999999999999999e-02 1.0335908180394917e+01 8.7228767919779120e+00 5.2952549917134188e+00 -1 0 1
97 1 10 -2.6600000000000001e-01 8.4502402485058301e+00 6.1381428574989778e+00 4.0271183200656688e+00 -1 -1 -1
344 3 5 5.2999999999999999e-02 5.7137553474647591e+00 2.8319702919621532e+00 5.5221176013106312e+00 3 0 -1
175 2 5 5.2999999999999999e-02 3.3332154319145415e+00 4.5136628648327939e+00 4.9571096549272582e+00 0 1 0
437 4 5 5.2999999999999999e-02 8.7315343756896731e+00 8.3740672694888225e+00 1.0650209828291546e+00 -1 0 1
230 2 5 5.2999999999999999e-02 7.0692751047120757e+00 1.2254416162618882e+00 1.4075833674692870e+00 -1 1 1
310 3 5 5.2999999999999999e-02 1.6412264472357307e+01 8.4309820602508143e+00 3.3120592764471941e+00 2 0 -1
36 1 1 -1.0600000000000000e-01 5.0414395264551137e+00 6.9936975096487046e+00 7.3042670312552416e-01 0 -1 -1
335 3 5 5.2999999999999999e-02 2.3418739062998144e+00 4.7627195160104430e-01 5.3534541836985090e+00 3 0 -1
102 1 5 5.2999999999999999e-02 7.9717581116572518e+00 7.8929101186465669e+00 5.5166110688459424e+00 -1 -1 -1
337 3 1 -1.0600000000000000e-01 4.4699315039426519e+00 3.1594139331290538e-01 5.0149818231607162e+00 3 0 -1
372 3 10 -2.6600000000000001e-01 1.3485522983506767e+01 2.5468642918031406e+00 4.6510182416298909e+00 3 0 -1
382 3 5 5.2999999999999999e-02 1.6772958058854535e+01 3.6243477122093588e+00 4.3635511285597870e+00 3 0 -1
306 3 5 5.2999999999999999e-02 1.4090973340585339e+01 8.5318007089427610e+00 4.3940250548231239e+00 2 0 -1
88 1 1 -1.0600000000000000e-01 9.8412648734349766e+00 4.0828199088672923e+00 1.0303299929205265e+00 -1 -1 -1
106 1 5 5.2999999999999999e-02 6.4051806355210017e+00 8.0176909819396194e+00 3.5330858046599078e+00 -1 -1 -1
92 1 5 5.2999999999999999e-02 9.0571299034411066e+00 6.1689339074359459e+00 1.5630647406693712e+00 -1 -1 -1
314 3 1 -1.0600000000000000e-01 6.6741725137385577e-02 6.5671161295611178e+00 1.5413617376618709e+00 3 0 -1
331 3 5 5.2999999999999999e-02 3.1424187074523018e+00 1.9053349833888683e-01 2.2402788827271052e+00 3 0 -1
225 2 1 2.7000000000000000e-02 9.6224224492796395e+00 3.3532536332151758e-01 1.2064961218608654e+00 -1 1 1
332 3 5 5.2999999999999999e-02 1.4893058157101760e+00 1.3066383110065943e-01 2.7859443722200505e+00 3 0 -1
33 1 1 1.1899999999999999e-01 4.1470489591454847e+00 8.2563082534101024e+00 7.4743401643548002e-01 0 -1 -1
229 2 1 2.7000000000000000e-02 7.2949551609604617e+00 2.1771202286771840e-01 1.2116733338547097e+00 -1 1 1
171 2 5 5.2999999999999999e-02 1.1141661036251151e+00 5.2630621217869873e+00 5.0785861938822974e+00 0 1 0
380 3 1 -1.0600000000000000e-01 1.5763789851541560e+01 3.7160250779639656e+00 4.7683335858620817e+00 3 0 -1
93 1 5 5.2999999999999999e-02 1.0528609551202660e+01 5.5188159010993898e+00 2.4877022512652092e+00 -1 -1 -1
228 2 10 -2.6600000000000001e-01 8.4674173281148271e+00 7.8404109008277989e-02 4.2908600887548187e-01 -1 1 1
37 1 5 5.2999999999999999e-02 4.3165807770284275e+00 6.1711283032184312e+00 6.7985081283853799e-01 0 -1 -1
336 3 5 5.2999999999999999e-02 3.2214292364986896e+00 1.9837122249225916e+00 5.6437806098075489e+00 3 0 -1
316 3 5 5.2999999999999999e-02 1.6828975450055665e+01 5.8176825916815531e+00 2.0716189589221172e+00 2 0 -1
256 2 5 5.2999999999999999e-02 1.5786671220890018e+01 3.7292421241683216e-01 2.0123796414530402e+00 -2 1 1
312 3 5 5.2999999999999999e-02 1.5727232354480250e+01 7.3836725061626423e+00 5.6225466067231777e-01 2 0 -1
89 1 5 5.2999999999999999e-02 1.0421870153365020e+01 3.2964647282984894e+00 1.5777159732217987e+00 -1 -1 -1
168 2 5 5.2999999999999999e-02 3.7935977943547722e-01 7.6185551142961385e+00 5.4270303976284433e+00 0 1 0
370 3 5 5.2999999999999999e-02 1.1982150177080875e+01 3.3756961263340131e+00 3.3565019671501197e+00 3 0 -1
80 1 5 5.2999999999999999e-02 1.4363071230565780e+01 5.1746474362469028e+00 3.0532000930594189e-01 -1 -1 -1
91 1 1 -1.0600000000000000e-01 9.5733924218780739e+00 5.2364502915256317e+00 2.0346583242790368e+00 -1 -1 -1
381 3 5 5.2999999999999999e-02 1.5516486498191368e+01 4.7644883500639770e+00 4.7796465823710399e+00 3 0 -1
307 3 10 -2.6600000000000001e-01 1.4658879231426127e+01 7.4183047097308066e+00 2.6688655447012888e+00 2 0 -1
303 3 5 5.2999999999999999e-02 1.2957221451464493e+01 5.7043855291478494e+00 3.8231179110302671e+00 2 0 -1
367 3 5 5.2999999999999999e-02 1.1127376216084754e+01 2.3333472872124768e+00 5.5763138372985530e+00 3 0 -1
296 3 5 5.2999999999999999e-02 1.1250225885495396e+01 4.7841452855276518e+00 5.7773865616736177e+00 2 0 -1
317 3 1 2.7000000000000000e-02 6.9358441515320546e-01 5.7719013936212971e+00 3.7459037062511241e-01 3 0 -1
366 3 1 -1.0600000000000000e-01 1.1178142792095668e+01 1.7545315901415377e+00 4.6175851610209584e+00 3 0 -1
368 3 5 5.2999999999999999e-02 1.0228320974905996e+01 1.8564818879803584e+00 4.0618000108126111e+00 3 0 -1
94 1 1 2.7000000000000000e-02 8.7622897913394802e+00 4.8735829120218090e+00 3.2845599506987839e+00 -1 -1 -1
304 3 1 2.7000000000000000e-02 1.4211459111887168e+01 7.4798713425660175e+00 4.0397817467151995e+00 2 0 -1
371 3 5 5.2999999999999999e-02 1.2569901369707509e+01 1.7051397616169308e+00 2.9872722549153834e+00 3 0 -1
308 3 1 2.7000000000000000e-02 1.5796802900922685e+01 8.3219365705629453e+00 2.4295283706162514e+00 2 0 -1
365 3 5 5.2999999999999999e-02 1.2390071883326158e+01 4.0354908094573688e-01 5.7794462425072801e+00 3 0 -1
227 2 5 5.2999999999999999e-02 9.7246825279259745e+00 1.4371792263617909e+00 1.3376377835550282e+00 -1 1 1
96 1 5 5.2999999999999999e-02 9.2752208301442440e+00 4.2306324695230044e+00 3.8464617387795799e+00 -1 -1 -1
313 3 5 5.2999999999999999e-02 1.7156585750081412e+01 8.5017704528267846e+00 6.2782350691599620e-01 2 0 -1
378 3 5 5.2999999999999999e-02 1.4544314617788844e+01 3.2636228893936243e+00 2.9702768945097850e+00 3 0 -1
35 1 5 5.2999999999999999e-02 3.4356062219124608e+00 8.3009701940207581e+00 1.7105583430146576e+00 0 -1 -1
433 4 5 5.2999999999999999e-02 1.0447262187589187e+01 7.9641305886800646e+00 2.6075699170610900e+00 -1 0 1
301 3 1 -1.0600000000000000e-01 1.2921914680376716e+01 6.6962739338975767e+00 4.3273254806702868e+00 2 0 -1
302 3 5 5.2999999999999999e-02 1.1999166645593839e+01 7.2283767662317615e+00 3.9624391350693915e+00 2 0 -1
369 3 1 2.7000000000000000e-02 1.2306815192630014e+01 2.3911384520998680e+00 3.7999703033358596e+00 3 0 -1
363 3 1 -1.0600000000000000e-01 1.1547412481387470e+01 2.8386661631884036e-01 5.0876471407457666e+00 3 0 -1
305 3 5 5.2999999999999999e-02 1.5004531596511606e+01 7.0154866996903102e+00 4.5548225138758678e+00 2 0 -1
377 3 1 2.7000000000000000e-02 1.4764823180696375e+01 2.8218863273721433e+00 3.9170641119303773e+00 3 0 -1
311 3 1 -1.0600000000000000e-01 1.6564804721536944e+01 7.7420351784839623e+00 1.2503574261539097e+00 2 0 -1
321 3 1 2.7000000000000000e-02 2.1413052275814559e+00 3.8600028888757589e+00 8.9102304464277624e-02 3 0 -1
90 1 5 5.2999999999999999e-02 8.9284480500496404e+00 3.6226487240897938e+00 7.1938741933183081e-01 -1 -1 -1
174 2 5 5.2999999999999999e-02 4.0322857831956878e+00 6.1281532034408475e+00 5.4196197844692042e+00 0 1 0
298 3 1 -1.0600000000000000e-01 1.2915349114383732e+01 6.2958878218441185e+00 5.8260970388984505e+00 2 0 -1
173 2 1 2.7000000000000000e-02 3.1633725414306411e+00 5.4493044764693304e+00 5.5370157347116189e+00 0 1 0
43 1 5 5.2999999999999999e-02 7.4337553649754646e+00 5.3589789590378887e+00 2.9688730828445209e-01 0 -1 -1
76 1 5 5.2999999999999999e-02 1.3690123842498929e+01 2.8057494166118144e+00 1.4893734114166621e-01 -1 -1 -1
74 1 5 5.2999999999999999e-02 1.5645492001513357e+01 1.7787133136511335e+00 2.5352193875850693e-01 -1 -1 -1
342 3 5 5.2999999999999999e-02 6.5632068143356612e+00 2.7711741543555490e-02 4.7755211702013325e+00 3 0 -1
84 1 10 -2.6600000000000001e-01 1.1987640371441460e+01 4.8094801378111436e+00 2.4525375856946141e-02 -1 -1 -1
177 2 1 2.7000000000000000e-02 4.2680486719075992e+00 4.6348141932262230e+00 7.5456746292206178e+00 0 1 0
180 2 1 -1.0600000000000000e-01 4.0866117228853112e+00 3.8996082191096799e+00 8.8827567386756012e+00 0 1 0
183 2 1 -1.0600000000000000e-01 3.5583287726553494e+00 2.5287531399278844e+00 8.8531677879719997e+00 0 1 0
181 2 5 5.2999999999999999e-02 3.4896320333678097e+00 4.4953785891046749e+00 9.5943111973942727e+00 0 1 0
179 2 5 5.2999999999999999e-02 4.9895948099156096e+00 5.4293731981069140e+00 7.6880579710654651e+00 0 1 0
186 2 1 2.7000000000000000e-02 2.0088691898833018e+00 2.3861580489839689e+00 9.1969707141658787e+00 0 1 0
285 3 4 2.3699999999999999e-01 8.1283006085356639e+00 7.2586029114411437e+00 9.2775464753002730e+00 2 0 -1
283 3 4 -1.2680000000000000e-01 7.9177084122200645e+00 6.1964348727587977e+00 1.0189042395027545e+01 2 0 -1
182 2 5 5.2999999999999999e-02 5.0424422586559086e+00 3.9386508377788680e+00 9.3813882579020795e+00 0 1 0
185 2 5 5.2999999999999999e-02 3.6414148712537862e+00 1.9904941255652391e+00 7.8874817068590009e+00 0 1 0
184 2 5 5.2999999999999999e-02 4.0725619158915602e+00 1.9005821627309376e+00 9.6644464180599439e+00 0 1 0
165 2 5 5.2999999999999999e-02 1.4859922815327280e+00 7.1538402551860676e+00 8.1278437946624731e+00 0 1 0
276 3 5 1.2680000000000000e-01 1.4938659054751009e+00 6.0581510584238210e+00 1.0414281088325870e+01 2 0 -1
188 2 5 5.2999999999999999e-02 1.4959233264133129e+00 2.8792132119440379e+00 8.3552011902110443e+00 0 1 0
178 2 5 5.2999999999999999e-02 4.7310002829502613e+00 3.8369554788785911e+00 6.8932559725729785e+00 0 1 0
176 2 10 -2.6600000000000001e-01 3.0644573162352531e+00 5.0397536614427025e+00 6.9543062687727577e+00 0 1 0
274 3 5 1.2680000000000000e-01 3.7395637840536877e+00 7.1347300943625074e+00 1.0380524750483209e+01 2 0 -1
189 2 10 -2.6600000000000001e-01 1.6825892944985754e+00 9.5840997555071472e-01 9.1550572168019588e+00 0 1 0
349 3 5 5.2999999999999999e-02 7.0303067472595471e+00 3.1855988376098332e+00 8.0002623607988621e+00 3 0 -1
187 2 5 5.2999999999999999e-02 1.6483924573937332e+00 2.8657644931512101e+00 1.0101701155439091e+01 0 1 0
347 3 1 2.7000000000000000e-02 7.5898998807422959e+00 2.2465437586381061e+00 7.7016471328548359e+00 3 0 -1
275 3 4 -1.2680000000000000e-01 2.0706626433513278e+00 6.2357191577862503e+00 1.1358644927050655e+01 2 0 -1
190 2 1 2.7000000000000000e-02 2.6111040469898666e-01 5.9818563550562787e-01 9.2041973176038745e+00 0 1 0
284 3 5 1.2680000000000000e-01 8.4549736171681431e+00 5.2733353248359522e+00 1.0163685341248526e+01 2 0 -1
352 3 5 5.2999999999999999e-02 6.9035038546991929e+00 8.3467748186737567e-01 9.1315990319955205e+00 3 0 -1
350 3 1 -1.0600000000000000e-01 7.8034099368929191e+00 1.3891324783462131e+00 8.9314186991538698e+00 3 0 -1
346 3 10 -2.6600000000000001e-01 6.7972513219047981e+00 1.5418376487074061e+00 6.7516031492021549e+00 3 0 -1
164 2 1 1.1899999999999999e-01 7.2551198196369771e-01 6.8696842536958531e+00 7.3593076442196068e+00 0 1 0
166 2 5 5.2999999999999999e-02 6.0143563176348269e-01 5.7718525108579284e+00 7.4941715014626675e+00 0 1 0
286 3 4 -1.2680000000000000e-01 7.3076155774310196e+00 8.4020476749235407e+00 9.4715433204041961e+00 2 0 -1
280 3 4 0.0000000000000000e+00 6.3424473657870584e+00 7.4496598825777296e+00 1.1449830544921968e+01 2 0 -1
359 3 10 -2.6600000000000001e-01 1.0437742118142923e+01 7.0623191269326924e-02 7.1053951669096680e+00 3 0 -1
351 3 5 5.2999999999999999e-02 7.8774667142268493e+00 2.0936929341427111e+00 9.7854710984408761e+00 3 0 -1
149 2 4 0.0000000000000000e+00 1.1511708791760849e+01 8.0299291002779700e+00 1.1280987594610593e+01 -1 1 0
191 2 5 5.2999999999999999e-02 1.7117540136536832e+01 7.9091575320017704e-01 8.2995025244879752e+00 -1 1 0
273 3 4 -1.2680000000000000e-01 3.3422322949455117e+00 6.8166546484078978e+00 1.1358060086638591e+01 2 0 -1
353 3 1 -1.0600000000000000e-01 9.0246723254962689e+00 3.9711507305703292e-01 9.1130531655680578e+00 3 0 -1
167 2 1 -1.0600000000000000e-01 1.2379796374002399e+00 7.2260042208946897e+00 5.9497208429909580e+00 0 1 0
281 3 4 -1.2680000000000000e-01 7.0584114640577038e+00 6.3576350431580408e+00 1.1255267287055464e+01 2 0 -1
169 2 5 5.2999999999999999e-02 1.9199689016654335e+00 8.0776376741869189e+00 6.1318822206409687e+00 0 1 0
348 3 5 5.2999999999999999e-02 8.5481127495777383e+00 2.5757226296594142e+00 7.2972425723017631e+00 3 0 -1
160 2 6 3.7800000000000000e-01 1.4854472151212295e+01 8.4013718871930774e+00 7.9143709391278554e+00 -1 1 0
157 2 4 -1.2680000000000000e-01 1.1493893436474057e+01 8.5837356771236486e+00 1.0007271324107522e+01 -1 1 0
386 3 1 2.7000000000000000e-02 1.4771742880746407e+01 3.7177035997059504e+00 7.2711199328965863e+00 3 0 -1
523 4 5 5.2999999999999999e-02 9.5491916019254113e+00 3.3423520616176052e+00 1.1354830583227452e+01 -1 1 1
391 3 5 5.2999999999999999e-02 1.3837417840558922e+01 2.5068579853178212e+00 1.0177430866005242e+01 3 0 -1
161 2 3 8.8500000000000001e-01 1.6098938343392859e+01 7.2142172931837774e+00 8.7672355595614295e+00 -1 1 0
290 3 7 -7.2599999999999998e-01 9.0006429062637849e+00 7.2176013975883713e+00 8.1876850896302820e+00 2 0 -1
295 3 1 1.1899999999999999e-01 1.1712839664835665e+01 5.6187443706239915e+00 6.4331876277371958e+00 2 0 -1
155 2 4 -1.2680000000000000e-01 1.2586250360027510e+01 8.4881448106200832e+00 9.2181723463340859e+00 -1 1 0
103 1 5 5.2999999999999999e-02 6.5861062591655095e+00 7.2848351238100344e+00 6.5820589320221039e+00 -1 -1 -1
300 3 5 5.2999999999999999e-02 1.3355547182648507e+01 7.0262819477142404e+00 6.5065822067372094e+00 2 0 -1
299 3 5 5.2999999999999999e-02 1.3779818410248126e+01 5.5972446260417792e+00 5.9176045131954238e+00 2 0 -1
354 3 5 5.2999999999999999e-02 9.8877912836646384e+00 1.0519476199104110e+00 9.2446467472588090e+00 3 0 -1
383 3 1 -1.0600000000000000e-01 1.5884641437411805e+01 3.1869344886582951e+00 6.2521759855892469e+00 3 0 -1
152 2 4 -1.2680000000000000e-01 1.3869745302009685e+01 7.3752567714670176e+00 1.0884295061003886e+01 -1 1 0
293 3 8 -5.8499999999999996e-01 9.7810887624983369e+00 5.0791317951559174e+00 8.2326405745649769e+00 2 0 -1
288 3 4 -1.2680000000000000e-01 6.4563519471782680e+00 8.4859510661061481e+00 1.0511339106389491e+01 2 0 -1
266 3 6 3.7800000000000000e-01 1.7097053131510073e+01 5.2823019282951567e+00 1.1535730926909096e+01 1 0 -1
385 3 5 5.2999999999999999e-02 1.6828546671733562e+01 3.5345760982339272e+00 6.6106449134125080e+00 3 0 -1
159 2 7 -7.2599999999999998e-01 1.4977859695346570e+01 7.8659056639102136e+00 8.7162341864769068e+00 -1 1 0
153 2 5 1.2680000000000000e-01 1.4814374194462681e+01 6.8567902463939463e+00 1.1237028825969208e+01 -1 1 0
163 2 9 -4.1399999999999998e-01 1.6839184680107742e+01 7.4082437137619275e+00 7.6249970199552690e+00 -1 1 0
388 3 5 5.2999999999999999e-02 1.3758198162465190e+01 3.4327404439773672e+00 6.9144193199783839e+00 3 0 -1
154 2 4 2.3699999999999999e-01 1.3844220802204703e+01 7.9471777504348573e+00 9.6095066103781406e+00 -1 1 0
291 3 6 3.7800000000000000e-01 9.0468667445770485e+00 8.0394059191755272e+00 7.6779599647038150e+00 2 0 -1
192 2 5 5.2999999999999999e-02 1.7165817979401254e+01 1.2750968367481905e+00 9.8850621304794029e+00 -1 1 0
387 3 5 5.2999999999999999e-02 1.4800023194553814e+01 4.8266201852213610e+00 7.5024543107815456e+00 3 0 -1
200 2 5 5.2999999999999999e-02 1.5179772236483579e+01 5.7027084620028512e-01 9.6584094435198864e+00 -1 1 0
392 3 5 5.2999999999999999e-02 1.2875284235534760e+01 3.2505103664405799e+00 8.9713864929583149e+00 3 0 -1
393 3 5 5.2999999999999999e-02 1.3893581073835650e+01 4.3102114185653120e+00 9.9492244068504139e+00 3 0 -1
297 3 5 5.2999999999999999e-02 1.2113413433902522e+01 5.1380689203816097e+00 7.3589134007839254e+00 2 0 -1
292 3 3 8.8500000000000001e-01 9.7989353200231601e+00 6.1973949721269141e+00 7.8409657287799668e+00 2 0 -1
389 3 10 -2.6600000000000001e-01 1.4959311746171172e+01 3.0683110672171794e+00 8.5458241966664517e+00 3 0 -1
390 3 1 -2.5999999999999999e-02 1.3871606744214958e+01 3.3274520199219828e+00 9.4319209160285489e+00 3 0 -1
384 3 5 5.2999999999999999e-02 1.5967508440836671e+01 2.0823616624082355e+00 6.4037440899843130e+00 3 0 -1
294 3 9 -4.1399999999999998e-01 1.0742080001604805e+01 6.6200093116281238e+00 6.9368427560947685e+00 2 0 -1
162 2 8 -5.8499999999999996e-01 1.6420773467771049e+01 6.4139774647159546e+00 9.6278018872038942e+00 -1 1 0
99 1 5 5.2999999999999999e-02 8.0525064072935688e+00 5.4195538735339905e+00 6.0025699870918245e+00 -1 -1 -1
338 3 5 5.2999999999999999e-02 4.4017970314196209e+00 2.1595309300792564e-02 6.0823503714520966e+00 3 0 -1
58 1 10 -2.6600000000000001e-01 3.5227842997231558e+00 2.0038750893802955e+00 1.3347916215229606e+01 0 -1 -2
49 1 1 -1.0600000000000000e-01 5.6921953889978445e+00 2.7556668341966968e+00 1.5072067499348439e+01 0 -1 -2
270 3 4 -1.2680000000000000e-01 3.3963235548448938e+00 6.5111760191641013e+00 1.3725938548096453e+01 2 0 -1
268 3 4 -1.2680000000000000e-01 2.1386784368363791e+00 5.9226679244118907e+00 1.3678861452551201e+01 2 0 -1
52 1 1 -1.0600000000000000e-01 5.1605792049886077e+00 3.5234055083153279e+00 1.3863358305703398e+01 0 -1 -2
50 1 5 5.2999999999999999e-02 6.1671613803480678e+00 1.8131298037589028e+00 1.4713149210644275e+01 0 -1 -2
269 3 5 1.2680000000000000e-01 1.7165502719798404e+00 5.4477365853635851e+00 1.4530092343109242e+01 2 0 -1
55 1 1 2.7000000000000000e-02 4.5162563660531418e+00 2.7658041791731121e+00 1.2716191512281753e+01 0 -1 -2
54 1 5 5.2999999999999999e-02 5.9510824498111576e+00 4.1913334259960973e+00 1.3569315849961267e+01 0 -1 -2
56 1 5 5.2999999999999999e-02 4.1970782251425902e+00 3.4878655576126305e+00 1.2005615944762226e+01 0 -1 -2
272 3 4 0.0000000000000000e+00 4.0329341204413724e+00 6.9868159922073430e+00 1.2548575155337780e+01 2 0 -1
271 3 5 1.2680000000000000e-01 3.9939474318259380e+00 6.4743545074449020e+00 1.4685140816823107e+01 2 0 -1
267 3 4 2.3699999999999999e-01 1.4012294715988081e+00 5.8221068043642150e+00 1.2543854295845186e+01 2 0 -1
53 1 5 5.2999999999999999e-02 4.3565215352301481e+00 4.1100380120684576e+00 1.4246006113650104e+01 0 -1 -2
46 1 1 2.7000000000000000e-02 6.6861008354490750e+00 3.4607461627495231e+00 1.6015721645955189e+01 0 -1 -2
47 1 5 5.2999999999999999e-02 7.6832865294843993e+00 3.6067033457771420e+00 1.5525301319188962e+01 0 -1 -2
66 1 5 5.2999999999999999e-02 1.0052931119939097e+00 2.7848971348608260e+00 1.4239514982936404e+01 0 -1 -2
57 1 5 5.2999999999999999e-02 5.2351559406258996e+00 2.0748668111188726e+00 1.2261641518907883e+01 0 -1 -2
51 1 5 5.2999999999999999e-02 4.7639221965612677e+00 2.5949517680550045e+00 1.5719092582111452e+01 0 -1 -2
65 1 1 -1.0600000000000000e-01 6.1374172728895293e-01 1.7681812599577287e+00 1.4262481087980001e+01 0 -1 -2
45 1 10 -2.6600000000000001e-01 6.0569807779946681e+00 4.7186004290041597e+00 1.6309375882118296e+01 0 -1 -2
40 1 5 5.2999999999999999e-02 5.5990901958917521e+00 7.2211166140389986e+00 1.6082202866706410e+01 0 -1 -2
279 3 5 5.2999999999999999e-02 6.0046717322708769e+00 7.4416750720386142e+00 1.3617495789771773e+01 2 0 -1
277 3 1 -1.0600000000000000e-01 5.3870671127035434e+00 7.6637732892212478e+00 1.2631885731938459e+01 2 0 -1
59 1 1 2.7000000000000000e-02 2.6014317158020415e+00 1.0651580936968261e+00 1.2705988204348339e+01 0 -1 -2
48 1 5 5.2999999999999999e-02 6.8465503126039904e+00 2.9801994392957276e+00 1.6943337824371319e+01 0 -1 -2
44 1 5 5.2999999999999999e-02 7.7251269712256043e+00 5.9362411183878150e+00 1.6139075870078905e+01 0 -1 -2
60 1 5 5.2999999999999999e-02 2.0955001674649991e+00 1.6501975971861553e+00 1.1951542832915536e+01 0 -1 -2
81 1 1 2.7000000000000000e-02 1.2894892010246686e+01 5.0214525016537506e+00 1.6311955205491991e+01 -1 -1 -2
322 3 5 5.2999999999999999e-02 1.3522716962528822e+00 3.3616605363345684e+00 1.6965453090175053e+01 3 0 -2
32 1 9 -4.1399999999999998e-01 3.2651027706036864e+00 8.2560157581757156e+00 1.7024573289457337e+01 0 -1 -2
29 1 6 3.7800000000000000e-01 1.9195593932498589e+00 8.0327593362134788e+00 1.5371610243833885e+01 0 -1 -2
70 1 5 5.2999999999999999e-02 7.4220938909864775e-01 1.4048286749611829e+00 1.6364188866125254e+01 0 -1 -2
233 2 5 5.2999999999999999e-02 5.7429354740161793e+00 3.1434288985905123e-01 1.7049934229047935e+01 -1 1 0
83 1 5 5.2999999999999999e-02 1.2821840708720242e+01 6.0454247372198910e+00 1.5928181731093645e+01 -1 -1 -2
150 2 4 -1.2680000000000000e-01 1.2719203677742536e+01 7.4363953117539605e+00 1.1698350411142213e+01 -1 1 0
265 3 7 -7.2599999999999998e-01 1.7442446124939604e+01 5.3081640279021052e+00 1.2433411479402993e+01 1 0 -1
39 1 1 -1.0600000000000000e-01 6.0537785965445003e+00 7.0773088192787199e+00 1.7066358906455903e+01 0 -1 -2
42 1 1 2.7000000000000000e-02 6.8887079619138731e+00 5.7487185272613068e+00 1.6867298807237113e+01 0 -1 -2
41 1 5 5.2999999999999999e-02 6.6461293626314628e+00 7.9380945512739451e+00 1.7345542714398569e+01 0 -1 -2
407 4 5 1.2680000000000000e-01 7.5830669296198856e+00 1.2725572732290622e+00 1.2293779757098513e+01 -1 1 1
397 4 6 3.7800000000000000e-01 9.2950499033818499e+00 2.2962577852433030e+00 1.5084433381207344e+01 -1 1 1
396 4 7 -7.2599999999999998e-01 9.4656711840794934e+00 2.1746497946754939e+00 1.4099931134310289e+01 -1 1 1
398 4 4 2.3699999999999999e-01 9.3162640346721339e+00 8.1629936365888811e-01 1.3594301059049110e+01 -1 1 1
203 2 1 2.7000000000000000e-02 1.3972952153307853e+01 2.7537574522768898e-01 1.2209446772684831e+01 -1 1 0
406 4 4 -1.2680000000000000e-01 8.2609428474557038e+00 5.3671413964632009e-01 1.2720815061125068e+01 -1 1 1
78 1 1 -1.0600000000000000e-01 1.4278770118515096e+01 4.6962032626443984e+00 1.6751129474277413e+01 -1 -1 -2
374 3 5 5.2999999999999999e-02 1.4573846926932061e+01 5.6199016367151264e+00 1.3517804477404740e+01 1 0 -1
375 3 5 5.2999999999999999e-02 1.5021612437130873e+01 4.3857464802129194e+00 1.2118401761573240e+01 1 0 -1
207 2 5 5.2999999999999999e-02 1.3252890373069100e+01 5.0712519126721656e-01 1.4240096939937310e+01 -1 1 0
146 2 1 -1.0600000000000000e-01 1.0345444304494814e+01 8.2280031946906753e+00 1.2174694480408670e+01 -1 1 0
204 2 5 5.2999999999999999e-02 1.3821440864604224e+01 1.4131236885280185e+00 1.2066745926638482e+01 -1 1 0
25 1 5 1.2680000000000000e-01 1.7439607349701483e+01 7.9196451430810964e+00 1.4026544166061999e+01 -1 -1 -2
87 1 5 5.2999999999999999e-02 1.0081894214866516e+01 5.4230514683145614e+00 1.6724965203181938e+01 -1 -1 -2
319 3 5 5.2999999999999999e-02 1.7291599978671336e+01 5.2571563792958580e+00 1.7277913681875866e+01 2 0 -2
72 1 1 2.7000000000000000e-02 1.5712932359582252e+01 2.6197403486064275e+00 1.6951437879949708e+01 -1 -1 -2
376 3 5 5.2999999999999999e-02 1.4877408317632002e+01 3.9048896689543620e+00 1.3914462458938873e+01 1 0 -1
69 1 5 5.2999999999999999e-02 1.6944727324538420e+01 3.5457999357140418e-01 1.5757802638935898e+01 -1 -1 -2
62 1 1 -1.0600000000000000e-01 1.6583677198748463e+00 7.0839420890612981e-01 1.3878056089558065e+01 0 -1 -2
145 2 5 1.2680000000000000e-01 1.1541800891933821e+01 8.2864484678087500e+00 1.6735098169832376e+01 -1 1 0
143 2 5 1.2680000000000000e-01 1.0941697049150170e+01 7.0855942273104686e+00 1.4533693234511995e+01 -1 1 0
394 4 2 6.4200000000000002e-01 1.0049165210667192e+01 3.2336779313155475e+00 1.3447375328010782e+01 -1 1 1
67 1 5 5.2999999999999999e-02 1.7302854815333895e+01 1.7131704448917531e+00 1.3437181587325101e+01 -1 -1 -2
264 3 8 -5.3100000000000003e-01 1.6972635495907184e+01 5.6152410969018156e+00 1.4565651127209689e+01 1 0 -1
68 1 1 2.7000000000000000e-02 1.7364830041008226e+01 1.3439291769782777e+00 1.5600333508595174e+01 -1 -1 -2
147 2 5 5.2999999999999999e-02 9.8465682583870819e+00 7.1881788180115640e+00 1.2352194442524361e+01 -1 1 0
75 1 1 -1.0600000000000000e-01 1.4347643944080026e+01 3.1412991088873112e+00 1.6784044258311511e+01 -1 -1 -2
61 1 5 5.2999999999999999e-02 3.1271912315502139e+00 2.2916546668116342e-01 1.2223420233168463e+01 0 -1 -2
323 3 5 5.2999999999999999e-02 2.7039914637160645e+00 4.2804638388036222e+00 1.6691072732310367e+01 3 0 -2
263 3 2 6.4200000000000002e-01 1.6634584523876221e+01 5.2209963689823704e+00 1.3507283129734947e+01 1 0 -1
71 1 10 -2.6600000000000001e-01 1.6169040112921365e+01 2.1604809719685703e+00 1.5700053613959570e+01 -1 -1 -2
77 1 5 5.2999999999999999e-02 1.3801116092214453e+01 2.7721738893623713e+00 1.5929799773357550e+01 -1 -1 -2
86 1 5 5.2999999999999999e-02 1.0655583465348354e+01 3.6293661457920585e+00 1.6554174705498312e+01 -1 -1 -2
85 1 1 2.7000000000000000e-02 1.0599233637520991e+01 4.5387477895776138e+00 1.7193173202761855e+01 -1 -1 -2
79 1 5 5.2999999999999999e-02 1.5118014975061747e+01 5.1121446212687411e+00 1.6196385162882116e+01 -1 -1 -2
142 2 4 -1.2680000000000000e-01 1.1028570713456981e+01 8.1923388128893571e+00 1.4591374432751307e+01 -1 1 0
151 2 5 1.2680000000000000e-01 1.2781156357993158e+01 6.8795585661529071e+00 1.2639281331841065e+01 -1 1 0
82 1 5 5.2999999999999999e-02 1.2614871744205873e+01 4.3524718327476482e+00 1.5421841255695478e+01 -1 -1 -2
373 3 1 -1.5900000000000000e-01 1.5163391434149981e+01 4.7249984512771874e+00 1.3193082310015816e+01 1 0 -1
395 4 8 -5.3100000000000003e-01 1.0098550221264929e+01 4.2914871678173361e+00 1.4024721062629649e+01 -1 1 1
63 1 5 5.2999999999999999e-02 2.4063747983315262e+00 5.6686239241467373e-01 1.4711640290467617e+01 0 -1 -2
223 2 5 5.2999999999999999e-02 1.1307659820156397e+01 1.9654028829479961e-01 1.7378249952900163e+01 -1 1 0
208 2 5 5.2999999999999999e-02 1.5002906679941185e+01 3.3973060974209801e-01 1.4091719131297475e+01 -1 1 0
282 3 5 1.2680000000000000e-01 6.9264857255568728e+00 5.4823419964392031e+00 1.1907928276350301e+01 2 0 -1
318 3 5 5.2999999999999999e-02 1.1438302894538031e+00 6.3598760080435612e+00 1.7037728011159338e+01 3 0 -2
73 1 5 5.2999999999999999e-02 1.6482083365034313e+01 3.4382223498447826e+00 1.7309571726073855e+01 -1 -1 -2
521 4 1 -1.5900000000000000e-01 1.0413926979233684e+01 3.0443432851602061e+00 1.2027476696809446e+01 -1 1 1
524 4 5 5.2999999999999999e-02 1.1326673902497035e+01 3.6447289790586122e+00 1.1692729181577958e+01 -1 1 1
522 4 5 5.2999999999999999e-02 1.0735777518552933e+01 2.0078193816226286e+00 1.1861789785722268e+01 -1 1 1
517 4 1 -2.5999999999999999e-02 1.6647632127114746e+00 1.1956082886246076e+01 2.4117809061565976e+00 0 0 0
518 4 5 5.2999999999999999e-02 1.5192268911817206e+00 1.0913997053630631e+01 2.7378860040430348e+00 0 0 0
516 4 10 -2.6600000000000001e-01 1.3530699304503111e+00 1.2861406497132092e+01 3.4049828471288701e+00 0 0 0
520 4 5 5.2999999999999999e-02 8.9943154594185615e-01 1.2061022974376266e+01 1.5333195298652749e+00 0 0 0
519 4 5 5.2999999999999999e-02 2.6541313840004648e+00 1.2018910263831105e+01 1.9688564413587915e+00 0 0 0
247 2 5 5.2999999999999999e-02 1.9028550935955626e+00 1.4332768339290995e+01 1.0427429249691442e+00 -1 0 1
513 4 1 2.7000000000000000e-02 2.1618193657139670e+00 1.3175776908221152e+01 4.5087465040885419e+00 0 0 0